8
Lattice="5.44 0.0 0.0 0.0 5.44 0.0 0.0 0.0 5.44" Properties=species:S:1:pos:R:3:forces:R:3 pbc="T T T" energy=-34.56
Si 0.0 0.0 0.0 0.1 -0.2 0.3
Si 1.36 1.36 1.36 -0.1 0.2 -0.3
Si 2.72 2.72 0.0 0.05 -0.15 0.25
Si 0.0 2.72 2.72 -0.05 0.15 -0.25
Si 2.72 0.0 2.72 0.11 -0.22 0.33
Si 4.08 1.36 4.08 -0.11 0.22 -0.33
Si 1.36 4.08 4.08 0.07 -0.17 0.27
Si 4.08 4.08 1.36 -0.07 0.17 -0.27
